LAMMPS data file via write_data, version 22 Jul 2025, timestep = 0, units = metal

500 atoms
1 atom types

0 20.25 xlo xhi
0 20.25 ylo yhi
0 20.25 zlo zhi

Masses

1 26.9815385

Atoms # atomic

1 1 0 0 0 0 0 0
2 1 2.025 2.025 0 0 0 0
3 1 2.025 0 2.025 0 0 0
4 1 0 2.025 2.025 0 0 0
5 1 4.05 0 0 0 0 0
6 1 6.074999999999999 2.025 0 0 0 0
7 1 6.074999999999999 0 2.025 0 0 0
8 1 4.05 2.025 2.025 0 0 0
9 1 8.1 0 0 0 0 0
10 1 10.125 2.025 0 0 0 0
11 1 10.125 0 2.025 0 0 0
12 1 8.1 2.025 2.025 0 0 0
13 1 12.149999999999999 0 0 0 0 0
14 1 14.174999999999999 2.025 0 0 0 0
15 1 14.174999999999999 0 2.025 0 0 0
16 1 12.149999999999999 2.025 2.025 0 0 0
17 1 16.2 0 0 0 0 0
18 1 18.224999999999998 2.025 0 0 0 0
19 1 18.224999999999998 0 2.025 0 0 0
20 1 16.2 2.025 2.025 0 0 0
21 1 0 4.05 0 0 0 0
22 1 2.025 6.074999999999999 0 0 0 0
23 1 2.025 4.05 2.025 0 0 0
24 1 0 6.074999999999999 2.025 0 0 0
25 1 4.05 4.05 0 0 0 0
26 1 6.074999999999999 6.074999999999999 0 0 0 0
27 1 6.074999999999999 4.05 2.025 0 0 0
28 1 4.05 6.074999999999999 2.025 0 0 0
29 1 8.1 4.05 0 0 0 0
30 1 10.125 6.074999999999999 0 0 0 0
31 1 10.125 4.05 2.025 0 0 0
32 1 8.1 6.074999999999999 2.025 0 0 0
33 1 12.149999999999999 4.05 0 0 0 0
34 1 14.174999999999999 6.074999999999999 0 0 0 0
35 1 14.174999999999999 4.05 2.025 0 0 0
36 1 12.149999999999999 6.074999999999999 2.025 0 0 0
37 1 16.2 4.05 0 0 0 0
38 1 18.224999999999998 6.074999999999999 0 0 0 0
39 1 18.224999999999998 4.05 2.025 0 0 0
40 1 16.2 6.074999999999999 2.025 0 0 0
41 1 0 8.1 0 0 0 0
42 1 2.025 10.125 0 0 0 0
43 1 2.025 8.1 2.025 0 0 0
44 1 0 10.125 2.025 0 0 0
45 1 4.05 8.1 0 0 0 0
46 1 6.074999999999999 10.125 0 0 0 0
47 1 6.074999999999999 8.1 2.025 0 0 0
48 1 4.05 10.125 2.025 0 0 0
49 1 8.1 8.1 0 0 0 0
50 1 10.125 10.125 0 0 0 0
51 1 10.125 8.1 2.025 0 0 0
52 1 8.1 10.125 2.025 0 0 0
53 1 12.149999999999999 8.1 0 0 0 0
54 1 14.174999999999999 10.125 0 0 0 0
55 1 14.174999999999999 8.1 2.025 0 0 0
56 1 12.149999999999999 10.125 2.025 0 0 0
57 1 16.2 8.1 0 0 0 0
58 1 18.224999999999998 10.125 0 0 0 0
59 1 18.224999999999998 8.1 2.025 0 0 0
60 1 16.2 10.125 2.025 0 0 0
61 1 0 12.149999999999999 0 0 0 0
62 1 2.025 14.174999999999999 0 0 0 0
63 1 2.025 12.149999999999999 2.025 0 0 0
64 1 0 14.174999999999999 2.025 0 0 0
65 1 4.05 12.149999999999999 0 0 0 0
66 1 6.074999999999999 14.174999999999999 0 0 0 0
67 1 6.074999999999999 12.149999999999999 2.025 0 0 0
68 1 4.05 14.174999999999999 2.025 0 0 0
69 1 8.1 12.149999999999999 0 0 0 0
70 1 10.125 14.174999999999999 0 0 0 0
71 1 10.125 12.149999999999999 2.025 0 0 0
72 1 8.1 14.174999999999999 2.025 0 0 0
73 1 12.149999999999999 12.149999999999999 0 0 0 0
74 1 14.174999999999999 14.174999999999999 0 0 0 0
75 1 14.174999999999999 12.149999999999999 2.025 0 0 0
76 1 12.149999999999999 14.174999999999999 2.025 0 0 0
77 1 16.2 12.149999999999999 0 0 0 0
78 1 18.224999999999998 14.174999999999999 0 0 0 0
79 1 18.224999999999998 12.149999999999999 2.025 0 0 0
80 1 16.2 14.174999999999999 2.025 0 0 0
81 1 0 16.2 0 0 0 0
82 1 2.025 18.224999999999998 0 0 0 0
83 1 2.025 16.2 2.025 0 0 0
84 1 0 18.224999999999998 2.025 0 0 0
85 1 4.05 16.2 0 0 0 0
86 1 6.074999999999999 18.224999999999998 0 0 0 0
87 1 6.074999999999999 16.2 2.025 0 0 0
88 1 4.05 18.224999999999998 2.025 0 0 0
89 1 8.1 16.2 0 0 0 0
90 1 10.125 18.224999999999998 0 0 0 0
91 1 10.125 16.2 2.025 0 0 0
92 1 8.1 18.224999999999998 2.025 0 0 0
93 1 12.149999999999999 16.2 0 0 0 0
94 1 14.174999999999999 18.224999999999998 0 0 0 0
95 1 14.174999999999999 16.2 2.025 0 0 0
96 1 12.149999999999999 18.224999999999998 2.025 0 0 0
97 1 16.2 16.2 0 0 0 0
98 1 18.224999999999998 18.224999999999998 0 0 0 0
99 1 18.224999999999998 16.2 2.025 0 0 0
100 1 16.2 18.224999999999998 2.025 0 0 0
101 1 0 0 4.05 0 0 0
102 1 2.025 2.025 4.05 0 0 0
103 1 2.025 0 6.074999999999999 0 0 0
104 1 0 2.025 6.074999999999999 0 0 0
105 1 4.05 0 4.05 0 0 0
106 1 6.074999999999999 2.025 4.05 0 0 0
107 1 6.074999999999999 0 6.074999999999999 0 0 0
108 1 4.05 2.025 6.074999999999999 0 0 0
109 1 8.1 0 4.05 0 0 0
110 1 10.125 2.025 4.05 0 0 0
111 1 10.125 0 6.074999999999999 0 0 0
112 1 8.1 2.025 6.074999999999999 0 0 0
113 1 12.149999999999999 0 4.05 0 0 0
114 1 14.174999999999999 2.025 4.05 0 0 0
115 1 14.174999999999999 0 6.074999999999999 0 0 0
116 1 12.149999999999999 2.025 6.074999999999999 0 0 0
117 1 16.2 0 4.05 0 0 0
118 1 18.224999999999998 2.025 4.05 0 0 0
119 1 18.224999999999998 0 6.074999999999999 0 0 0
120 1 16.2 2.025 6.074999999999999 0 0 0
121 1 0 4.05 4.05 0 0 0
122 1 2.025 6.074999999999999 4.05 0 0 0
123 1 2.025 4.05 6.074999999999999 0 0 0
124 1 0 6.074999999999999 6.074999999999999 0 0 0
125 1 4.05 4.05 4.05 0 0 0
126 1 6.074999999999999 6.074999999999999 4.05 0 0 0
127 1 6.074999999999999 4.05 6.074999999999999 0 0 0
128 1 4.05 6.074999999999999 6.074999999999999 0 0 0
129 1 8.1 4.05 4.05 0 0 0
130 1 10.125 6.074999999999999 4.05 0 0 0
131 1 10.125 4.05 6.074999999999999 0 0 0
132 1 8.1 6.074999999999999 6.074999999999999 0 0 0
133 1 12.149999999999999 4.05 4.05 0 0 0
134 1 14.174999999999999 6.074999999999999 4.05 0 0 0
135 1 14.174999999999999 4.05 6.074999999999999 0 0 0
136 1 12.149999999999999 6.074999999999999 6.074999999999999 0 0 0
137 1 16.2 4.05 4.05 0 0 0
138 1 18.224999999999998 6.074999999999999 4.05 0 0 0
139 1 18.224999999999998 4.05 6.074999999999999 0 0 0
140 1 16.2 6.074999999999999 6.074999999999999 0 0 0
141 1 0 8.1 4.05 0 0 0
142 1 2.025 10.125 4.05 0 0 0
143 1 2.025 8.1 6.074999999999999 0 0 0
144 1 0 10.125 6.074999999999999 0 0 0
145 1 4.05 8.1 4.05 0 0 0
146 1 6.074999999999999 10.125 4.05 0 0 0
147 1 6.074999999999999 8.1 6.074999999999999 0 0 0
148 1 4.05 10.125 6.074999999999999 0 0 0
149 1 8.1 8.1 4.05 0 0 0
150 1 10.125 10.125 4.05 0 0 0
151 1 10.125 8.1 6.074999999999999 0 0 0
152 1 8.1 10.125 6.074999999999999 0 0 0
153 1 12.149999999999999 8.1 4.05 0 0 0
154 1 14.174999999999999 10.125 4.05 0 0 0
155 1 14.174999999999999 8.1 6.074999999999999 0 0 0
156 1 12.149999999999999 10.125 6.074999999999999 0 0 0
157 1 16.2 8.1 4.05 0 0 0
158 1 18.224999999999998 10.125 4.05 0 0 0
159 1 18.224999999999998 8.1 6.074999999999999 0 0 0
160 1 16.2 10.125 6.074999999999999 0 0 0
161 1 0 12.149999999999999 4.05 0 0 0
162 1 2.025 14.174999999999999 4.05 0 0 0
163 1 2.025 12.149999999999999 6.074999999999999 0 0 0
164 1 0 14.174999999999999 6.074999999999999 0 0 0
165 1 4.05 12.149999999999999 4.05 0 0 0
166 1 6.074999999999999 14.174999999999999 4.05 0 0 0
167 1 6.074999999999999 12.149999999999999 6.074999999999999 0 0 0
168 1 4.05 14.174999999999999 6.074999999999999 0 0 0
169 1 8.1 12.149999999999999 4.05 0 0 0
170 1 10.125 14.174999999999999 4.05 0 0 0
171 1 10.125 12.149999999999999 6.074999999999999 0 0 0
172 1 8.1 14.174999999999999 6.074999999999999 0 0 0
173 1 12.149999999999999 12.149999999999999 4.05 0 0 0
174 1 14.174999999999999 14.174999999999999 4.05 0 0 0
175 1 14.174999999999999 12.149999999999999 6.074999999999999 0 0 0
176 1 12.149999999999999 14.174999999999999 6.074999999999999 0 0 0
177 1 16.2 12.149999999999999 4.05 0 0 0
178 1 18.224999999999998 14.174999999999999 4.05 0 0 0
179 1 18.224999999999998 12.149999999999999 6.074999999999999 0 0 0
180 1 16.2 14.174999999999999 6.074999999999999 0 0 0
181 1 0 16.2 4.05 0 0 0
182 1 2.025 18.224999999999998 4.05 0 0 0
183 1 2.025 16.2 6.074999999999999 0 0 0
184 1 0 18.224999999999998 6.074999999999999 0 0 0
185 1 4.05 16.2 4.05 0 0 0
186 1 6.074999999999999 18.224999999999998 4.05 0 0 0
187 1 6.074999999999999 16.2 6.074999999999999 0 0 0
188 1 4.05 18.224999999999998 6.074999999999999 0 0 0
189 1 8.1 16.2 4.05 0 0 0
190 1 10.125 18.224999999999998 4.05 0 0 0
191 1 10.125 16.2 6.074999999999999 0 0 0
192 1 8.1 18.224999999999998 6.074999999999999 0 0 0
193 1 12.149999999999999 16.2 4.05 0 0 0
194 1 14.174999999999999 18.224999999999998 4.05 0 0 0
195 1 14.174999999999999 16.2 6.074999999999999 0 0 0
196 1 12.149999999999999 18.224999999999998 6.074999999999999 0 0 0
197 1 16.2 16.2 4.05 0 0 0
198 1 18.224999999999998 18.224999999999998 4.05 0 0 0
199 1 18.224999999999998 16.2 6.074999999999999 0 0 0
200 1 16.2 18.224999999999998 6.074999999999999 0 0 0
201 1 0 0 8.1 0 0 0
202 1 2.025 2.025 8.1 0 0 0
203 1 2.025 0 10.125 0 0 0
204 1 0 2.025 10.125 0 0 0
205 1 4.05 0 8.1 0 0 0
206 1 6.074999999999999 2.025 8.1 0 0 0
207 1 6.074999999999999 0 10.125 0 0 0
208 1 4.05 2.025 10.125 0 0 0
209 1 8.1 0 8.1 0 0 0
210 1 10.125 2.025 8.1 0 0 0
211 1 10.125 0 10.125 0 0 0
212 1 8.1 2.025 10.125 0 0 0
213 1 12.149999999999999 0 8.1 0 0 0
214 1 14.174999999999999 2.025 8.1 0 0 0
215 1 14.174999999999999 0 10.125 0 0 0
216 1 12.149999999999999 2.025 10.125 0 0 0
217 1 16.2 0 8.1 0 0 0
218 1 18.224999999999998 2.025 8.1 0 0 0
219 1 18.224999999999998 0 10.125 0 0 0
220 1 16.2 2.025 10.125 0 0 0
221 1 0 4.05 8.1 0 0 0
222 1 2.025 6.074999999999999 8.1 0 0 0
223 1 2.025 4.05 10.125 0 0 0
224 1 0 6.074999999999999 10.125 0 0 0
225 1 4.05 4.05 8.1 0 0 0
226 1 6.074999999999999 6.074999999999999 8.1 0 0 0
227 1 6.074999999999999 4.05 10.125 0 0 0
228 1 4.05 6.074999999999999 10.125 0 0 0
229 1 8.1 4.05 8.1 0 0 0
230 1 10.125 6.074999999999999 8.1 0 0 0
231 1 10.125 4.05 10.125 0 0 0
232 1 8.1 6.074999999999999 10.125 0 0 0
233 1 12.149999999999999 4.05 8.1 0 0 0
234 1 14.174999999999999 6.074999999999999 8.1 0 0 0
235 1 14.174999999999999 4.05 10.125 0 0 0
236 1 12.149999999999999 6.074999999999999 10.125 0 0 0
237 1 16.2 4.05 8.1 0 0 0
238 1 18.224999999999998 6.074999999999999 8.1 0 0 0
239 1 18.224999999999998 4.05 10.125 0 0 0
240 1 16.2 6.074999999999999 10.125 0 0 0
241 1 0 8.1 8.1 0 0 0
242 1 2.025 10.125 8.1 0 0 0
243 1 2.025 8.1 10.125 0 0 0
244 1 0 10.125 10.125 0 0 0
245 1 4.05 8.1 8.1 0 0 0
246 1 6.074999999999999 10.125 8.1 0 0 0
247 1 6.074999999999999 8.1 10.125 0 0 0
248 1 4.05 10.125 10.125 0 0 0
249 1 8.1 8.1 8.1 0 0 0
250 1 10.125 10.125 8.1 0 0 0
251 1 10.125 8.1 10.125 0 0 0
252 1 8.1 10.125 10.125 0 0 0
253 1 12.149999999999999 8.1 8.1 0 0 0
254 1 14.174999999999999 10.125 8.1 0 0 0
255 1 14.174999999999999 8.1 10.125 0 0 0
256 1 12.149999999999999 10.125 10.125 0 0 0
257 1 16.2 8.1 8.1 0 0 0
258 1 18.224999999999998 10.125 8.1 0 0 0
259 1 18.224999999999998 8.1 10.125 0 0 0
260 1 16.2 10.125 10.125 0 0 0
261 1 0 12.149999999999999 8.1 0 0 0
262 1 2.025 14.174999999999999 8.1 0 0 0
263 1 2.025 12.149999999999999 10.125 0 0 0
264 1 0 14.174999999999999 10.125 0 0 0
265 1 4.05 12.149999999999999 8.1 0 0 0
266 1 6.074999999999999 14.174999999999999 8.1 0 0 0
267 1 6.074999999999999 12.149999999999999 10.125 0 0 0
268 1 4.05 14.174999999999999 10.125 0 0 0
269 1 8.1 12.149999999999999 8.1 0 0 0
270 1 10.125 14.174999999999999 8.1 0 0 0
271 1 10.125 12.149999999999999 10.125 0 0 0
272 1 8.1 14.174999999999999 10.125 0 0 0
273 1 12.149999999999999 12.149999999999999 8.1 0 0 0
274 1 14.174999999999999 14.174999999999999 8.1 0 0 0
275 1 14.174999999999999 12.149999999999999 10.125 0 0 0
276 1 12.149999999999999 14.174999999999999 10.125 0 0 0
277 1 16.2 12.149999999999999 8.1 0 0 0
278 1 18.224999999999998 14.174999999999999 8.1 0 0 0
279 1 18.224999999999998 12.149999999999999 10.125 0 0 0
280 1 16.2 14.174999999999999 10.125 0 0 0
281 1 0 16.2 8.1 0 0 0
282 1 2.025 18.224999999999998 8.1 0 0 0
283 1 2.025 16.2 10.125 0 0 0
284 1 0 18.224999999999998 10.125 0 0 0
285 1 4.05 16.2 8.1 0 0 0
286 1 6.074999999999999 18.224999999999998 8.1 0 0 0
287 1 6.074999999999999 16.2 10.125 0 0 0
288 1 4.05 18.224999999999998 10.125 0 0 0
289 1 8.1 16.2 8.1 0 0 0
290 1 10.125 18.224999999999998 8.1 0 0 0
291 1 10.125 16.2 10.125 0 0 0
292 1 8.1 18.224999999999998 10.125 0 0 0
293 1 12.149999999999999 16.2 8.1 0 0 0
294 1 14.174999999999999 18.224999999999998 8.1 0 0 0
295 1 14.174999999999999 16.2 10.125 0 0 0
296 1 12.149999999999999 18.224999999999998 10.125 0 0 0
297 1 16.2 16.2 8.1 0 0 0
298 1 18.224999999999998 18.224999999999998 8.1 0 0 0
299 1 18.224999999999998 16.2 10.125 0 0 0
300 1 16.2 18.224999999999998 10.125 0 0 0
301 1 0 0 12.149999999999999 0 0 0
302 1 2.025 2.025 12.149999999999999 0 0 0
303 1 2.025 0 14.174999999999999 0 0 0
304 1 0 2.025 14.174999999999999 0 0 0
305 1 4.05 0 12.149999999999999 0 0 0
306 1 6.074999999999999 2.025 12.149999999999999 0 0 0
307 1 6.074999999999999 0 14.174999999999999 0 0 0
308 1 4.05 2.025 14.174999999999999 0 0 0
309 1 8.1 0 12.149999999999999 0 0 0
310 1 10.125 2.025 12.149999999999999 0 0 0
311 1 10.125 0 14.174999999999999 0 0 0
312 1 8.1 2.025 14.174999999999999 0 0 0
313 1 12.149999999999999 0 12.149999999999999 0 0 0
314 1 14.174999999999999 2.025 12.149999999999999 0 0 0
315 1 14.174999999999999 0 14.174999999999999 0 0 0
316 1 12.149999999999999 2.025 14.174999999999999 0 0 0
317 1 16.2 0 12.149999999999999 0 0 0
318 1 18.224999999999998 2.025 12.149999999999999 0 0 0
319 1 18.224999999999998 0 14.174999999999999 0 0 0
320 1 16.2 2.025 14.174999999999999 0 0 0
321 1 0 4.05 12.149999999999999 0 0 0
322 1 2.025 6.074999999999999 12.149999999999999 0 0 0
323 1 2.025 4.05 14.174999999999999 0 0 0
324 1 0 6.074999999999999 14.174999999999999 0 0 0
325 1 4.05 4.05 12.149999999999999 0 0 0
326 1 6.074999999999999 6.074999999999999 12.149999999999999 0 0 0
327 1 6.074999999999999 4.05 14.174999999999999 0 0 0
328 1 4.05 6.074999999999999 14.174999999999999 0 0 0
329 1 8.1 4.05 12.149999999999999 0 0 0
330 1 10.125 6.074999999999999 12.149999999999999 0 0 0
331 1 10.125 4.05 14.174999999999999 0 0 0
332 1 8.1 6.074999999999999 14.174999999999999 0 0 0
333 1 12.149999999999999 4.05 12.149999999999999 0 0 0
334 1 14.174999999999999 6.074999999999999 12.149999999999999 0 0 0
335 1 14.174999999999999 4.05 14.174999999999999 0 0 0
336 1 12.149999999999999 6.074999999999999 14.174999999999999 0 0 0
337 1 16.2 4.05 12.149999999999999 0 0 0
338 1 18.224999999999998 6.074999999999999 12.149999999999999 0 0 0
339 1 18.224999999999998 4.05 14.174999999999999 0 0 0
340 1 16.2 6.074999999999999 14.174999999999999 0 0 0
341 1 0 8.1 12.149999999999999 0 0 0
342 1 2.025 10.125 12.149999999999999 0 0 0
343 1 2.025 8.1 14.174999999999999 0 0 0
344 1 0 10.125 14.174999999999999 0 0 0
345 1 4.05 8.1 12.149999999999999 0 0 0
346 1 6.074999999999999 10.125 12.149999999999999 0 0 0
347 1 6.074999999999999 8.1 14.174999999999999 0 0 0
348 1 4.05 10.125 14.174999999999999 0 0 0
349 1 8.1 8.1 12.149999999999999 0 0 0
350 1 10.125 10.125 12.149999999999999 0 0 0
351 1 10.125 8.1 14.174999999999999 0 0 0
352 1 8.1 10.125 14.174999999999999 0 0 0
353 1 12.149999999999999 8.1 12.149999999999999 0 0 0
354 1 14.174999999999999 10.125 12.149999999999999 0 0 0
355 1 14.174999999999999 8.1 14.174999999999999 0 0 0
356 1 12.149999999999999 10.125 14.174999999999999 0 0 0
357 1 16.2 8.1 12.149999999999999 0 0 0
358 1 18.224999999999998 10.125 12.149999999999999 0 0 0
359 1 18.224999999999998 8.1 14.174999999999999 0 0 0
360 1 16.2 10.125 14.174999999999999 0 0 0
361 1 0 12.149999999999999 12.149999999999999 0 0 0
362 1 2.025 14.174999999999999 12.149999999999999 0 0 0
363 1 2.025 12.149999999999999 14.174999999999999 0 0 0
364 1 0 14.174999999999999 14.174999999999999 0 0 0
365 1 4.05 12.149999999999999 12.149999999999999 0 0 0
366 1 6.074999999999999 14.174999999999999 12.149999999999999 0 0 0
367 1 6.074999999999999 12.149999999999999 14.174999999999999 0 0 0
368 1 4.05 14.174999999999999 14.174999999999999 0 0 0
369 1 8.1 12.149999999999999 12.149999999999999 0 0 0
370 1 10.125 14.174999999999999 12.149999999999999 0 0 0
371 1 10.125 12.149999999999999 14.174999999999999 0 0 0
372 1 8.1 14.174999999999999 14.174999999999999 0 0 0
373 1 12.149999999999999 12.149999999999999 12.149999999999999 0 0 0
374 1 14.174999999999999 14.174999999999999 12.149999999999999 0 0 0
375 1 14.174999999999999 12.149999999999999 14.174999999999999 0 0 0
376 1 12.149999999999999 14.174999999999999 14.174999999999999 0 0 0
377 1 16.2 12.149999999999999 12.149999999999999 0 0 0
378 1 18.224999999999998 14.174999999999999 12.149999999999999 0 0 0
379 1 18.224999999999998 12.149999999999999 14.174999999999999 0 0 0
380 1 16.2 14.174999999999999 14.174999999999999 0 0 0
381 1 0 16.2 12.149999999999999 0 0 0
382 1 2.025 18.224999999999998 12.149999999999999 0 0 0
383 1 2.025 16.2 14.174999999999999 0 0 0
384 1 0 18.224999999999998 14.174999999999999 0 0 0
385 1 4.05 16.2 12.149999999999999 0 0 0
386 1 6.074999999999999 18.224999999999998 12.149999999999999 0 0 0
387 1 6.074999999999999 16.2 14.174999999999999 0 0 0
388 1 4.05 18.224999999999998 14.174999999999999 0 0 0
389 1 8.1 16.2 12.149999999999999 0 0 0
390 1 10.125 18.224999999999998 12.149999999999999 0 0 0
391 1 10.125 16.2 14.174999999999999 0 0 0
392 1 8.1 18.224999999999998 14.174999999999999 0 0 0
393 1 12.149999999999999 16.2 12.149999999999999 0 0 0
394 1 14.174999999999999 18.224999999999998 12.149999999999999 0 0 0
395 1 14.174999999999999 16.2 14.174999999999999 0 0 0
396 1 12.149999999999999 18.224999999999998 14.174999999999999 0 0 0
397 1 16.2 16.2 12.149999999999999 0 0 0
398 1 18.224999999999998 18.224999999999998 12.149999999999999 0 0 0
399 1 18.224999999999998 16.2 14.174999999999999 0 0 0
400 1 16.2 18.224999999999998 14.174999999999999 0 0 0
401 1 0 0 16.2 0 0 0
402 1 2.025 2.025 16.2 0 0 0
403 1 2.025 0 18.224999999999998 0 0 0
404 1 0 2.025 18.224999999999998 0 0 0
405 1 4.05 0 16.2 0 0 0
406 1 6.074999999999999 2.025 16.2 0 0 0
407 1 6.074999999999999 0 18.224999999999998 0 0 0
408 1 4.05 2.025 18.224999999999998 0 0 0
409 1 8.1 0 16.2 0 0 0
410 1 10.125 2.025 16.2 0 0 0
411 1 10.125 0 18.224999999999998 0 0 0
412 1 8.1 2.025 18.224999999999998 0 0 0
413 1 12.149999999999999 0 16.2 0 0 0
414 1 14.174999999999999 2.025 16.2 0 0 0
415 1 14.174999999999999 0 18.224999999999998 0 0 0
416 1 12.149999999999999 2.025 18.224999999999998 0 0 0
417 1 16.2 0 16.2 0 0 0
418 1 18.224999999999998 2.025 16.2 0 0 0
419 1 18.224999999999998 0 18.224999999999998 0 0 0
420 1 16.2 2.025 18.224999999999998 0 0 0
421 1 0 4.05 16.2 0 0 0
422 1 2.025 6.074999999999999 16.2 0 0 0
423 1 2.025 4.05 18.224999999999998 0 0 0
424 1 0 6.074999999999999 18.224999999999998 0 0 0
425 1 4.05 4.05 16.2 0 0 0
426 1 6.074999999999999 6.074999999999999 16.2 0 0 0
427 1 6.074999999999999 4.05 18.224999999999998 0 0 0
428 1 4.05 6.074999999999999 18.224999999999998 0 0 0
429 1 8.1 4.05 16.2 0 0 0
430 1 10.125 6.074999999999999 16.2 0 0 0
431 1 10.125 4.05 18.224999999999998 0 0 0
432 1 8.1 6.074999999999999 18.224999999999998 0 0 0
433 1 12.149999999999999 4.05 16.2 0 0 0
434 1 14.174999999999999 6.074999999999999 16.2 0 0 0
435 1 14.174999999999999 4.05 18.224999999999998 0 0 0
436 1 12.149999999999999 6.074999999999999 18.224999999999998 0 0 0
437 1 16.2 4.05 16.2 0 0 0
438 1 18.224999999999998 6.074999999999999 16.2 0 0 0
439 1 18.224999999999998 4.05 18.224999999999998 0 0 0
440 1 16.2 6.074999999999999 18.224999999999998 0 0 0
441 1 0 8.1 16.2 0 0 0
442 1 2.025 10.125 16.2 0 0 0
443 1 2.025 8.1 18.224999999999998 0 0 0
444 1 0 10.125 18.224999999999998 0 0 0
445 1 4.05 8.1 16.2 0 0 0
446 1 6.074999999999999 10.125 16.2 0 0 0
447 1 6.074999999999999 8.1 18.224999999999998 0 0 0
448 1 4.05 10.125 18.224999999999998 0 0 0
449 1 8.1 8.1 16.2 0 0 0
450 1 10.125 10.125 16.2 0 0 0
451 1 10.125 8.1 18.224999999999998 0 0 0
452 1 8.1 10.125 18.224999999999998 0 0 0
453 1 12.149999999999999 8.1 16.2 0 0 0
454 1 14.174999999999999 10.125 16.2 0 0 0
455 1 14.174999999999999 8.1 18.224999999999998 0 0 0
456 1 12.149999999999999 10.125 18.224999999999998 0 0 0
457 1 16.2 8.1 16.2 0 0 0
458 1 18.224999999999998 10.125 16.2 0 0 0
459 1 18.224999999999998 8.1 18.224999999999998 0 0 0
460 1 16.2 10.125 18.224999999999998 0 0 0
461 1 0 12.149999999999999 16.2 0 0 0
462 1 2.025 14.174999999999999 16.2 0 0 0
463 1 2.025 12.149999999999999 18.224999999999998 0 0 0
464 1 0 14.174999999999999 18.224999999999998 0 0 0
465 1 4.05 12.149999999999999 16.2 0 0 0
466 1 6.074999999999999 14.174999999999999 16.2 0 0 0
467 1 6.074999999999999 12.149999999999999 18.224999999999998 0 0 0
468 1 4.05 14.174999999999999 18.224999999999998 0 0 0
469 1 8.1 12.149999999999999 16.2 0 0 0
470 1 10.125 14.174999999999999 16.2 0 0 0
471 1 10.125 12.149999999999999 18.224999999999998 0 0 0
472 1 8.1 14.174999999999999 18.224999999999998 0 0 0
473 1 12.149999999999999 12.149999999999999 16.2 0 0 0
474 1 14.174999999999999 14.174999999999999 16.2 0 0 0
475 1 14.174999999999999 12.149999999999999 18.224999999999998 0 0 0
476 1 12.149999999999999 14.174999999999999 18.224999999999998 0 0 0
477 1 16.2 12.149999999999999 16.2 0 0 0
478 1 18.224999999999998 14.174999999999999 16.2 0 0 0
479 1 18.224999999999998 12.149999999999999 18.224999999999998 0 0 0
480 1 16.2 14.174999999999999 18.224999999999998 0 0 0
481 1 0 16.2 16.2 0 0 0
482 1 2.025 18.224999999999998 16.2 0 0 0
483 1 2.025 16.2 18.224999999999998 0 0 0
484 1 0 18.224999999999998 18.224999999999998 0 0 0
485 1 4.05 16.2 16.2 0 0 0
486 1 6.074999999999999 18.224999999999998 16.2 0 0 0
487 1 6.074999999999999 16.2 18.224999999999998 0 0 0
488 1 4.05 18.224999999999998 18.224999999999998 0 0 0
489 1 8.1 16.2 16.2 0 0 0
490 1 10.125 18.224999999999998 16.2 0 0 0
491 1 10.125 16.2 18.224999999999998 0 0 0
492 1 8.1 18.224999999999998 18.224999999999998 0 0 0
493 1 12.149999999999999 16.2 16.2 0 0 0
494 1 14.174999999999999 18.224999999999998 16.2 0 0 0
495 1 14.174999999999999 16.2 18.224999999999998 0 0 0
496 1 12.149999999999999 18.224999999999998 18.224999999999998 0 0 0
497 1 16.2 16.2 16.2 0 0 0
498 1 18.224999999999998 18.224999999999998 16.2 0 0 0
499 1 18.224999999999998 16.2 18.224999999999998 0 0 0
500 1 16.2 18.224999999999998 18.224999999999998 0 0 0

Velocities

1 1.866785336537709 -1.174279289559739 -1.9572804420012704
2 -2.7608989574234606 4.082088135366236 -3.850583953724308
3 4.692127796718648 9.789504554333012 -3.3307572788935764
4 1.6837880224340676 -1.4131584648738436 0.6705769531731277
5 2.5792622640358167 -0.660107279821302 6.952279701628123
6 0.13361984073207808 -6.060730596441944 -0.31653176981684283
7 -4.458681399676605 2.5388235594423048 -3.6399814589315995
8 2.8746748878086072 4.418077697000337 -0.7386868254767782
9 -4.202430207680188 3.052616433848614 -1.0448270193746152
10 4.251845220213371 -0.45551540751157465 -2.8829970707982597
11 1.5348533224496919 -4.757272366550171 -1.9244274334097495
12 -0.9417428483614781 7.751699108751688 -4.489766743939651
13 -1.2394252712322278 1.1516861979937485 -1.1490890780003293
14 0.7942747952311356 -0.3290255139776607 1.0672538793571165
15 2.1117627673143446 -0.7382639867401873 -0.2684568981491576
16 -1.09794589343942 -0.10329483953928727 2.0468485709664166
17 -1.8263782128961525 -1.3627844009362644 2.982947317266787
18 -6.368205255498866 1.1353673508452795 6.293224686099878
19 -0.9963307914410752 -8.054950795927708 0.12832303050662333
20 4.79229898634546 0.8096587285578054 -0.975364486750509
21 -1.9321889697490104 4.564125299655399 4.251075367553733
22 -2.0047364319550622 1.8489124922327353 1.8125026953328365
23 4.992714803315853 0.6763679295038312 -1.302313013853198
24 -5.609064692520692 1.5875178858665555 1.229924816172655
25 5.036432197143288 7.773227999697989 2.301342359459695
26 3.643375504578999 1.4677280795435186 -0.003174144327087473
27 -0.11809236754827934 -0.2932485344787285 3.7671434351227533
28 1.7586027482721036 4.133690883223924 7.600915360364724
29 -0.3382981748466176 1.6392666635263493 2.361997983569185
30 2.8574740445696594 -5.855092699525838 1.771872970343751
31 -1.7945441293194415 0.9116472015477466 -3.2995771622723558
32 -2.3117823782969134 6.240316277903946 1.207957062538975
33 -5.103007763728198 -1.337766090140317 -3.853808953084664
34 6.873943276850659 0.44462845968090653 1.374523303371936
35 2.1048553177384393 2.0091369784175104 -0.3359787179423063
36 -1.8945585714413857 3.3102411692304834 -7.47307860337133
37 1.7725655388416166 1.1998954835694562 -1.088142572015628
38 -2.7838610003454702 2.6214915683422353 -1.1832675465377283
39 -0.4825308836970584 -1.7676393414118294 -4.054399092598333
40 2.6473122863418257 -4.308313200101514 -5.478393086499997
41 -0.9404796633393175 3.560001472969972 6.63905234789132
42 1.2276584888455429 -2.7785811648753596 -3.5355958840915123
43 -2.058628536448977 0.27974664749506506 1.6157960854848803
44 7.577004473929857 3.4900139521223754 -6.923500769482939
45 -3.934157312049067 1.9097377804580156 -1.6725358131352457
46 -1.004223617242336 -1.9276025609644911 -3.1659645346529013
47 -5.873319604305345 3.9011798645749063 -2.947751507248686
48 1.8171509562405328 3.816962085761352 1.962164344216883
49 2.2065342631578098 1.9316688611340864 1.2130691925262453
50 -2.79008463013932 -3.3312901605563527 -3.7465591174013912
51 -1.673860333265312 -0.24522650189501227 -1.2158842686207785
52 0.23004127848395053 -0.917473490684154 0.8013412889444285
53 2.480368929636657 -2.2667359741577178 1.8003121229793966
54 1.6906553854656499 -5.929616698817082 3.3087639257242842
55 -2.2299743270865426 2.2652918598456275 2.3964608714761284
56 6.061123291138203 6.652813513303544 -1.4941511057152814
57 3.597084909265244 -5.216606841317542 6.267115749664354
58 3.374651444853225 -3.821210839390806 1.5327000517860372
59 -7.664396885692195 0.04681827653511627 -3.9249772287885176
60 0.4016000165333098 0.11222429769399542 -0.21689734443456452
61 2.039624676596883 0.8541671327768097 1.43991479724079
62 -1.024581420060227 -2.742605103397568 -4.054025311492526
63 -2.6424414345723926 -1.1227301006202448 -0.7187686209877613
64 1.3230427378895324 4.799432003893916 -4.8149728235732425
65 4.086166842865192 -7.12435602112623 -0.6258401664599869
66 -3.4628905758319086 1.4719408975125703 -0.2446540450829496
67 -1.8723346971638382 5.268256171463659 -1.2852440310495468
68 -0.6123943392288397 4.952263849118381 2.309412245504655
69 -1.4549323374277083 -6.215593969465645 -2.571213246115961
70 -1.56525434783571 0.1153251270824503 2.566259470039069
71 1.0795392009536138 -1.9888497932128453 1.7137529060809917
72 3.087614268425618 2.011607564275685 -1.8950832229902521
73 -4.176917146989574 -0.7003624419879528 -1.503419864157308
74 -0.5670238664224523 1.3104252100639662 -0.27038334415329995
75 -6.540314955252904 1.6272760656432113 1.4575579702985977
76 -1.7792803805166997 4.34376992255652 -1.2733714849769624
77 4.174304697052448 -0.29781045316273763 -1.5383964509229289
78 -1.1963252234636415 2.757157764027863 0.812654613824509
79 2.663622042669776 -1.3563468504122962 -4.26063835059314
80 -1.7390550331288557 -1.0491060791373883 -4.188644581604203
81 0.943388539464377 -0.07533268816034974 -1.9572186941523382
82 7.733620719734318 1.616618727848702 1.4376493643075252
83 -4.827296861506375 -3.3459408089702953 4.382612448850506
84 -3.169044222829905 -4.316919661623273 -2.0127700326977127
85 3.4769830330155957 0.7779114452711291 -3.198465154286393
86 2.9096095180540438 -0.061133890693910925 -6.3357507992344
87 1.2622885897293643 -0.4010896674113022 0.6103641875130622
88 -1.6933600477374782 -1.9035491318573696 -3.6422419994952935
89 1.3385929059220119 2.0243252752207446 1.0000051986061675
90 -0.5570960916398959 1.2358342352882608 -4.5549820169800235
91 -2.3302490940934644 -1.8881189554105324 -1.4976281853574733
92 4.682957015816912 -3.2205624948702924 0.09433989777511245
93 -2.479045911267452 5.199917457217631 1.0376720544624136
94 -2.202186115373671 -1.3740289360767306 -2.2497505898768195
95 -1.5357421384378434 1.332374992272506 3.9552427280265614
96 0.21400049210870722 -1.329066732462 1.3498945782376157
97 -2.3634380664784382 -2.125531959638673 4.988819035423067
98 -0.8085479139944702 -3.6356278950370644 -1.2164429436945585
99 1.1285103634473879 -1.3723311253991874 3.497285576255655
100 1.5689616194559461 -3.5196464820970226 -2.0015121737743966
101 -1.2007509778358856 3.5369297956833488 1.8784065806313919
102 -1.197496644242955 3.241865085320257 0.06868622187367082
103 -3.2760313306661177 -0.328325147740699 -1.9948243217064252
104 5.601781496915285 3.912075562832088 -0.14577453198329196
105 -0.6097616500489501 -6.759689194211117 -0.2192834209779169
106 -1.9130992990392912 -0.2859394642450778 -2.338797572443814
107 4.802953486457062 -1.5457907499502292 0.40947132553839566
108 5.2873053074131615 2.3273017946394456 2.5832361926273055
109 -0.9440578458891944 1.9861048545594886 0.7151948632246609
110 0.6615170126007985 3.921938848374733 -0.00010600208430797672
111 0.9009028628366156 -6.167512386563738 3.426056139862287
112 -4.5773555155036005 1.941680433396865 1.1437155994709096
113 0.6311380085756668 4.058845309796117 2.7033213979530677
114 2.0833831748841702 0.8446992959438009 0.7518354625867837
115 -4.044386090694209 -1.9025479754040173 -1.689907410024885
116 0.7849069553835325 -1.2422101434871442 3.7574082981056693
117 2.294664771836089 -2.543296008623981 -0.9260375357917885
118 1.533553067550473 -5.09315223075869 -0.5047755330495889
119 -0.9443991860501421 1.228435687248317 -0.2695691807137584
120 -5.547362780436549 6.084722164705873 -4.166618200522058
121 0.37405944144600584 -2.160780025088738 -1.835056419109176
122 0.881261624996083 -0.4383663740793702 3.805614389075521
123 1.9278608251969553 -0.13619371581062822 -0.3837122029462956
124 -7.6124187246122395 3.443616059595742 6.224929183279164
125 1.1781941798048465 -0.3836180866584146 3.594529391910458
126 0.28147310648032914 -3.1338062061756 -1.7048650349194532
127 5.7206491936170725 -1.7262755118949118 0.3714382681846319
128 -4.597485391172502 0.3191050905105899 -4.867779381933372
129 -3.159113693356797 -2.489379705074089 -0.8895296898309255
130 -2.7303223034592325 0.2119072976145472 3.735941018350691
131 0.9406709699744558 2.9782702737058093 -2.2967591158059735
132 5.179752126558193 -3.2293621743856167 7.377103480625009
133 0.5208502606984964 -1.9831102287972966 2.086795837746845
134 -0.005033154236730868 -1.9083997154063643 2.374661230631569
135 -4.248973047613896 1.0477010784643717 -4.267816163763654
136 0.6298798201105953 0.25680854887749566 1.70654903063424