LAMMPS data file via tdmd-fixture-gen, version tdmd-t1.3, timestep = 0

32 atoms
1 atom types

0.0 8.1 xlo xhi
0.0 8.1 ylo yhi
0.0 8.1 zlo zhi

Masses

1 26.98

Atoms # atomic

1 1 0.000 0.000 0.000
2 1 2.025 2.025 0.000
3 1 2.025 0.000 2.025
4 1 0.000 2.025 2.025
5 1 4.050 0.000 0.000
6 1 6.075 2.025 0.000
7 1 6.075 0.000 2.025
8 1 4.050 2.025 2.025
9 1 0.000 4.050 0.000
10 1 2.025 6.075 0.000
11 1 2.025 4.050 2.025
12 1 0.000 6.075 2.025
13 1 4.050 4.050 0.000
14 1 6.075 6.075 0.000
15 1 6.075 4.050 2.025
16 1 4.050 6.075 2.025
17 1 0.000 0.000 4.050
18 1 2.025 2.025 4.050
19 1 2.025 0.000 6.075
20 1 0.000 2.025 6.075
21 1 4.050 0.000 4.050
22 1 6.075 2.025 4.050
23 1 6.075 0.000 6.075
24 1 4.050 2.025 6.075
25 1 0.000 4.050 4.050
26 1 2.025 6.075 4.050
27 1 2.025 4.050 6.075
28 1 0.000 6.075 6.075
29 1 4.050 4.050 4.050
30 1 6.075 6.075 4.050
31 1 6.075 4.050 6.075
32 1 4.050 6.075 6.075

Velocities

1 0.10 -0.05 0.02
2 -0.08 0.11 -0.03
3 0.04 -0.09 0.07
4 -0.12 0.06 -0.05
5 0.09 -0.04 0.11
6 -0.06 0.10 -0.08
7 0.05 -0.11 0.06
8 -0.09 0.07 -0.10
9 0.12 -0.03 0.04
10 -0.07 0.12 -0.06
11 0.03 -0.08 0.09
12 -0.11 0.05 -0.04
13 0.08 -0.06 0.10
14 -0.05 0.09 -0.07
15 0.06 -0.10 0.05
16 -0.10 0.08 -0.09
17 0.11 -0.02 0.03
18 -0.06 0.11 -0.05
19 0.05 -0.09 0.08
20 -0.12 0.06 -0.04
21 0.09 -0.03 0.10
22 -0.07 0.10 -0.08
23 0.04 -0.11 0.07
24 -0.08 0.06 -0.09
25 0.12 -0.04 0.05
26 -0.06 0.12 -0.07
27 0.03 -0.08 0.09
28 -0.11 0.05 -0.03
29 0.08 -0.06 0.10
30 -0.05 0.09 -0.08
31 0.06 -0.10 0.05
32 -0.10 0.08 -0.09
