LAMMPS data file via tdmd-fixture-gen, intentionally corrupt (no Atoms section)

4 atoms
1 atom types

0.0 8.1 xlo xhi
0.0 8.1 ylo yhi
0.0 8.1 zlo zhi

Masses

1 26.98
