LAMMPS data file via tdmd-fixture-gen, intentionally triclinic (rejected in M1)

1 atoms
1 atom types

0.0 8.1 xlo xhi
0.0 8.1 ylo yhi
0.0 8.1 zlo zhi
0.5 0.0 0.0 xy xz yz

Masses

1 26.98

Atoms # atomic

1 1 0.0 0.0 0.0
