# TDMD benchmark T0 — morse-analytic dimer (metal units).
# 2 atoms, separation 3.5 A along x, initially at rest.
# Box chosen to satisfy L >= 3*(cutoff + skin) = 18.9 A for M1's 3-cells-per-axis stencil.

2 atoms
1 atom types

0.0 20.0 xlo xhi
0.0 20.0 ylo yhi
0.0 20.0 zlo zhi

Masses

1 1.0

Atoms # atomic

1 1 8.25 10.0 10.0
2 1 11.75 10.0 10.0

Velocities

1 0.0 0.0 0.0
2 0.0 0.0 0.0
